HEADER
"PSFversion" "1.00"
"design" "(\"MYLIB\" \"tutorial3\" \"config\" \"\")"
"simulator" "spectre"
"temperature" "27"
"host" ""
"date" "Feb 20 10:09:30 2015"
"title" ""
"analysisList" "()"
END
