HEADER
"PSFversion" "1.00"
"design" "(\"MYLIB\" \"tutorial3\" \"config\" \"\")"
"simulator" "spectre"
"temperature" "27"
"host" ""
"date" "Feb 16 10:22:10 2015"
"title" ""
"analysisList" "()"
END
