HEADER
"PSFversion" "1.00"
"Time Stamp" "Feb 16 10:22:10 2015"
TYPE
"variable" STRUCT(
"value" FLOAT DOUBLE
) PROP( "key" "element" )
VALUE
"temp" "variable" ( 27 ) PROP( )
END
