HEADER
"PSFversion" "1.00"
"Time Stamp" "Feb 20 10:09:30 2015"
TYPE
"variable" STRUCT(
"value" FLOAT DOUBLE
) PROP( "key" "element" )
VALUE
"temp" "variable" ( 27 ) PROP( )
END
